# Converted from POSCAR to lammps format

2 atoms
1 atom types

0  5.432  xlo xhi
0  2.716  ylo yhi
0  2.716  zlo zhi
2.716 2.716 0.0 xy xz yz

Masses

1 28.08

Atoms

1  1   0.0     0.0     0.0
2  1   1.358 1.358 1.358




