ITEM: TIMESTEP
6
ITEM: NUMBER OF ATOMS
54
ITEM: BOX BOUNDS xy xz yz pp pp pp
-7.8059565327522760e-06 3.2592023417869598e+01 8.1480078059565315e+00
-3.9029782663761380e-06 8.1480039029782656e+00 8.1480078059565315e+00
-3.9029782665577207e-06 8.1480039029782656e+00 0.0000000000000000e+00
ITEM: ATOMS id type xu yu zu 
1 1 -7.80596e-06 -3.90298e-06 -3.90298e-06 
2 1 1.35799 1.358 1.358 
19 1 2.71599 -3.90298e-06 2.716 
20 1 4.074 1.358 4.074 
37 1 5.432 -3.90298e-06 5.432 
38 1 6.79 1.358 6.79 
7 1 2.71599 2.716 -3.90298e-06 
8 1 4.074 4.074 1.358 
25 1 5.432 2.716 2.716 
26 1 6.79 4.074 4.074 
43 1 8.148 2.716 5.432 
44 1 9.506 4.074 6.79 
13 1 5.432 5.432 -3.90298e-06 
14 1 6.79 6.79 1.358 
31 1 8.148 5.432 2.716 
32 1 9.506 6.79 4.074 
49 1 10.864 5.432 5.432 
50 1 12.222 6.79 6.79 
3 1 5.432 -3.90298e-06 -3.90298e-06 
4 1 6.79 1.358 1.358 
21 1 8.148 -3.90298e-06 2.716 
22 1 9.506 1.358 4.074 
39 1 10.864 -3.90298e-06 5.432 
40 1 12.222 1.358 6.79 
9 1 8.148 2.716 -3.90298e-06 
10 1 9.506 4.074 1.358 
27 1 10.864 2.716 2.716 
28 1 12.222 4.074 4.074 
45 1 13.58 2.716 5.432 
46 1 14.938 4.074 6.79 
15 1 10.864 5.432 -3.90298e-06 
16 1 12.222 6.79 1.358 
33 1 13.58 5.432 2.716 
34 1 14.938 6.79 4.074 
51 1 16.296 5.432 5.432 
52 1 17.654 6.79 6.79 
5 1 10.864 -3.90298e-06 -3.90298e-06 
6 1 12.222 1.358 1.358 
23 1 13.58 -3.90298e-06 2.716 
24 1 14.938 1.358 4.074 
41 1 16.296 -3.90298e-06 5.432 
42 1 17.654 1.358 6.79 
11 1 13.58 2.716 -3.90298e-06 
12 1 14.938 4.074 1.358 
29 1 16.296 2.716 2.716 
30 1 17.654 4.074 4.074 
47 1 19.012 2.716 5.432 
48 1 20.37 4.074 6.79 
17 1 16.296 5.432 -3.90298e-06 
18 1 17.654 6.79 1.358 
35 1 19.012 5.432 2.716 
36 1 20.37 6.79 4.074 
53 1 21.728 5.432 5.432 
54 1 23.086 6.79 6.79 
